-----BEGIN PGP SIGNATURE-----

iQJPBAABCAA5FiEEB9cP28xEbBnKQwLObV8aePHcNh0FAmootNcbFIAAAAAABAAO
bWFudTIsMi41KzEuMTIsMiwyAAoJEG1fGnjx3DYddFsP/2UU8BCqlifT0UWkKlqn
aFieF2PYsPaKF+RqjTIVuKi2oCnpXv4//hJcRUP6rtLaXGNTQSMZhGsJTVnAISo1
+i8yHDobJe+YEQtI2L+e1HwI0ToAxUJ/h5dtO5QuNE7+M8oOCxEVIXOkftCOuT6n
2DBCYxspnt0DGfqZtHDcNNukRifghfFHBUkqRHwOqJPHRBWAzFZuMj7vxlQLaEoo
M/kaLNaLsfJlRe+6ubP0VaTSJPvuaKVs43mbogJYm/4cmcqaaro5N2xmQpTP5J4r
ZCORN7IO8Bq+yOsfaOPWSPLC9pY3eI2/aIs0SPes9i7tiizrRV3FPo7L6R7YSTPL
GrxdKH+aiy1Jl14+dCXhsSwW0vf8W2qX/NoGcm4C8uPdoq4m43ABdhTHGJNV1ZtX
zpcIBAY0zgtKCG3LgJCaNMNagaSJnVrLqam2ujDF02Bbojc6UAjfCsQNtFB/Qab/
imJIT3/rXxWs2fMBouHq4QbaWrMaZrjd1SY/fT0UAzaDhL/2vcKiQmKUfeF566px
ALfc244JjAN3Zpz1lPuiT/EeHk4Y6/4ttpYnDFG6e+P+cTsqI+6SNXrjNlTE5U4h
2GryUihefpCfXQUZ3hxc4CB5nUteUGeuKlhaHBdbIXiQNKxJCKq5eh2bZHVHAW+3
eShVEo5a5S9YoBtW4J/npUzI
=R8W/
-----END PGP SIGNATURE-----
